============================== echo of input deck ==============================
echo

scratch_dir ./scratch

title "benzene_gamma2_ma-zora-def2-svp_pbe0_dft"

Charge 1

basis "ao basis" spherical
  * library ma-zora-def2-svp except C
  C    S
     1238.40169380             5.727408300E-03
      186.29004992             4.213600060E-02
       42.25117635             1.866435633E-01
       11.67655793             4.678258158E-01
        3.59305065             4.421228295E-01
  C    S
        0.40245147             1.000000000E+00
  C    S
        0.13090183            -1.000000000E+00
  C    P
        9.46809706             5.701225280E-02
        2.01035451             3.130476217E-01
        0.54771005             7.605188875E-01
  C    P
        0.15268614             1.000000000E+00
  C    D
        0.80000000             1.000000000E+00
  #C    S
  #     0.04363394             1.000000000E+00
end

set tolguess 5e-8
set int:acc_std 1d-14

#memory total 1800 mb

dft
  direct
  xc pbe0
  decomp
  grid xfine nodisk     # Extra fine integration grid not stored on disk
  tolerances tight tol_rho 1e-13 accCoul 14     # Coulomb screening tolerances etc.
  convergence energy 5e-9 nolevelshifting       # SCF total energy convergence criterion
  iterations 200        # Maximum SCF iterations
  mult 2
end

relativistic
  zora on
  zora:cutoff 1d-30
end

geometry noautosym noautoz
C -1.40024273 0.02232486 0.00000000
C -0.71074846 -1.25212625 0.00000000
C 0.67044064 -1.27415126 0.00000000
C 1.40024254 -0.02232486 0.00000000
C 0.71074856 1.25212608 0.00000000
C -0.67044053 1.27415143 0.00000000
H -1.29869210 -2.17946235 0.00000000
H 1.22851910 -2.21976360 0.00000000
H 2.50436689 -0.03994437 0.00000000
H 1.29869187 2.17946273 0.00000000
H -1.22851937 2.21976321 0.00000000
H -2.50436664 0.03994438 0.00000000
end

task dft
================================================================================

 Output coordinates in angstroms (scale by  1.889725989 to convert to a.u.)

  No.       Tag          Charge          X              Y              Z
 ---- ---------------- ---------- -------------- -------------- --------------
    1 C                    6.0000    -1.40024273     0.02232486     0.00000000
    2 C                    6.0000    -0.71074846    -1.25212625     0.00000000
    3 C                    6.0000     0.67044064    -1.27415126     0.00000000
    4 C                    6.0000     1.40024254    -0.02232486     0.00000000
    5 C                    6.0000     0.71074856     1.25212608     0.00000000
    6 C                    6.0000    -0.67044053     1.27415143     0.00000000
    7 H                    1.0000    -1.29869210    -2.17946235     0.00000000
    8 H                    1.0000     1.22851910    -2.21976360     0.00000000
    9 H                    1.0000     2.50436689    -0.03994437     0.00000000
   10 H                    1.0000     1.29869187     2.17946273     0.00000000
   11 H                    1.0000    -1.22851937     2.21976321     0.00000000
   12 H                    1.0000    -2.50436664     0.03994438     0.00000000

         Total DFT energy =     -231.606888912899

                    DFT Final Alpha Molecular Orbital Analysis
                    ------------------------------------------

 Vector    1  Occ=1.000000D+00  E=-1.050667D+01

 Vector   35  Occ=0.000000D+00  E= 1.685142D-01

 Vector   36  Occ=0.000000D+00  E= 2.209226D-01

 Vector   37  Occ=0.000000D+00  E= 2.422801D-01

 Vector   38  Occ=0.000000D+00  E= 2.448882D-01

 Vector   39  Occ=0.000000D+00  E= 2.577427D-01

 Vector   40  Occ=0.000000D+00  E= 2.618002D-01

 Vector   41  Occ=0.000000D+00  E= 2.820569D-01

 Vector   42  Occ=0.000000D+00  E= 3.092524D-01

 Vector   43  Occ=0.000000D+00  E= 3.095350D-01

 Vector   44  Occ=0.000000D+00  E= 3.295881D-01

 Vector   45  Occ=0.000000D+00  E= 3.504479D-01

 Vector   46  Occ=0.000000D+00  E= 3.629498D-01

 Vector   47  Occ=0.000000D+00  E= 4.170737D-01

 Vector   48  Occ=0.000000D+00  E= 4.189475D-01

 Vector   49  Occ=0.000000D+00  E= 4.551163D-01

 Vector   50  Occ=0.000000D+00  E= 4.554329D-01

 Vector   51  Occ=0.000000D+00  E= 4.769518D-01

 Vector   52  Occ=0.000000D+00  E= 4.899033D-01

 Vector   53  Occ=0.000000D+00  E= 4.970309D-01

 Vector   54  Occ=0.000000D+00  E= 5.119757D-01

 Vector   55  Occ=0.000000D+00  E= 5.265528D-01

 Vector   56  Occ=0.000000D+00  E= 5.355629D-01

 Vector   57  Occ=0.000000D+00  E= 5.471897D-01

 Vector   58  Occ=0.000000D+00  E= 5.629681D-01

 Vector   59  Occ=0.000000D+00  E= 5.907870D-01

 Vector   60  Occ=0.000000D+00  E= 6.365617D-01

 Vector   61  Occ=0.000000D+00  E= 6.910218D-01

 Vector   62  Occ=0.000000D+00  E= 8.268783D-01

 Vector   63  Occ=0.000000D+00  E= 8.438967D-01

 Vector   64  Occ=0.000000D+00  E= 9.480505D-01

 Vector   65  Occ=0.000000D+00  E= 1.020693D+00

 Vector   66  Occ=0.000000D+00  E= 1.033466D+00

 Vector   67  Occ=0.000000D+00  E= 1.034061D+00

 Vector   68  Occ=0.000000D+00  E= 1.084985D+00

 Vector   69  Occ=0.000000D+00  E= 1.089064D+00

 Vector   70  Occ=0.000000D+00  E= 1.114433D+00

 Vector   71  Occ=0.000000D+00  E= 1.118558D+00

 Vector   72  Occ=0.000000D+00  E= 1.396014D+00

 Vector   73  Occ=0.000000D+00  E= 1.411515D+00

 Vector   74  Occ=0.000000D+00  E= 1.449196D+00

 Vector   75  Occ=0.000000D+00  E= 1.460970D+00

 Vector   76  Occ=0.000000D+00  E= 1.493537D+00

 Vector   77  Occ=0.000000D+00  E= 1.524841D+00

 Vector   78  Occ=0.000000D+00  E= 1.525191D+00

 Vector   79  Occ=0.000000D+00  E= 1.536046D+00

 Vector   80  Occ=0.000000D+00  E= 1.546338D+00

 Vector   81  Occ=0.000000D+00  E= 1.546773D+00

 Vector   82  Occ=0.000000D+00  E= 1.548773D+00

 Vector   83  Occ=0.000000D+00  E= 1.611588D+00

 Vector   84  Occ=0.000000D+00  E= 1.614485D+00

 Vector   85  Occ=0.000000D+00  E= 1.727355D+00

 Vector   86  Occ=0.000000D+00  E= 1.754635D+00

 Vector   87  Occ=0.000000D+00  E= 1.762082D+00

 Vector   88  Occ=0.000000D+00  E= 1.766270D+00

 Vector   89  Occ=0.000000D+00  E= 1.768156D+00

 Vector   90  Occ=0.000000D+00  E= 1.771849D+00

 Vector   91  Occ=0.000000D+00  E= 1.912000D+00

 Vector   92  Occ=0.000000D+00  E= 1.914643D+00

 Vector   93  Occ=0.000000D+00  E= 1.920081D+00

 Vector   94  Occ=0.000000D+00  E= 1.930100D+00

 Vector   95  Occ=0.000000D+00  E= 2.025069D+00

 Vector   96  Occ=0.000000D+00  E= 2.070296D+00

 Vector   97  Occ=0.000000D+00  E= 2.072425D+00

 Vector   98  Occ=0.000000D+00  E= 2.077306D+00

 Vector   99  Occ=0.000000D+00  E= 2.079993D+00

 Vector  100  Occ=0.000000D+00  E= 2.143440D+00

 Vector  101  Occ=0.000000D+00  E= 2.305334D+00

 Vector  102  Occ=0.000000D+00  E= 2.343085D+00

 Vector  103  Occ=0.000000D+00  E= 2.366588D+00

 Vector  104  Occ=0.000000D+00  E= 2.370924D+00

 Vector  105  Occ=0.000000D+00  E= 2.511087D+00

 Vector  106  Occ=0.000000D+00  E= 2.518167D+00

 Vector  107  Occ=0.000000D+00  E= 2.523195D+00

 Vector  108  Occ=0.000000D+00  E= 2.579785D+00

 Vector  109  Occ=0.000000D+00  E= 2.617676D+00

 Vector  110  Occ=0.000000D+00  E= 2.655360D+00

 Vector  111  Occ=0.000000D+00  E= 2.837770D+00

 Vector  112  Occ=0.000000D+00  E= 2.913514D+00

 Vector  113  Occ=0.000000D+00  E= 2.983914D+00

 Vector  114  Occ=0.000000D+00  E= 3.367395D+00

     Multipole analysis of the density
     ---------------------------------

     L   x y z        total         alpha         beta         nuclear
     -   - - -        -----         -----         ----         -------
     0   0 0 0      1.000000    -21.000000    -20.000000     42.000000

     1   1 0 0      0.000067      0.000029      0.000038      0.000000
     1   0 1 0     -0.000001     -0.000000     -0.000001      0.000000
     1   0 0 1     -0.000000     -0.000000      0.000000      0.000000

     2   2 0 0    -13.576346   -106.651949    -99.474143    192.549745
     2   1 1 0     -0.031634     -0.071409     -0.174889      0.214664
     2   1 0 1      0.000000     -0.000000      0.000000      0.000000
     2   0 2 0    -15.548841   -111.092151   -110.361988    205.905297
     2   0 1 1      0.000000      0.000000      0.000000      0.000000

 Total times  cpu:       20.1s     wall:       21.3s
